   * xtb version 6.6.1 (8d0f1dd) compiled by 'conda@1efc2f54142f' on 2023-08-01
          program call               : xtb crest_best.xyz --gfn 2 --opt vtight --parallel 4

   ID    Z sym.   atoms
    1    5 B      1
    2    7 N      2, 9
    3    6 C      3-8, 10-12
    4    9 F      13, 14
    5    1 H      15-21

          :  Hamiltonian                  GFN2-xTB          :
 * total energy  :   -39.5227847 Eh     change       -0.4618030E-09 Eh
 * total energy  :   -39.5296338 Eh     change       -0.6849092E-02 Eh
 * total energy  :   -39.5305258 Eh     change       -0.8919979E-03 Eh
 * total energy  :   -39.5306036 Eh     change       -0.7781654E-04 Eh
 * total energy  :   -39.5306329 Eh     change       -0.2933299E-04 Eh
 * total energy  :   -39.5306349 Eh     change       -0.2017505E-05 Eh
 * total energy  :   -39.5306352 Eh     change       -0.2797230E-06 Eh
 * total energy  :   -39.5306352 Eh     change       -0.2782377E-07 Eh
   *** GEOMETRY OPTIMIZATION CONVERGED AFTER 8 ITERATIONS ***

 final structure:
================
21
 xtb: 6.6.1 (8d0f1dd)
B            0.00018398657220       -1.16303979778307       -0.00138713245302
N           -1.24625534839761       -0.24118088696523       -0.00176307329138
C           -2.51734946230292       -0.61967978173745       -0.00303396288239
C           -3.35679521838755        0.50389863596863       -0.00244646936485
C           -2.54062538588769        1.61145358222669       -0.00081783939662
C           -1.20561503168652        1.13797851152678       -0.00031322707528
C           -0.00039771253155        1.82096022244956        0.00049627312713
C            1.20508636610491        1.13844774694007       -0.00042125121999
N            1.24626576959986       -0.24069500562861       -0.00166510854563
C            2.51750789874462       -0.61869689160337       -0.00278888783955
C            3.35651366831165        0.50521023714966       -0.00233796434724
C            2.53991074575331        1.61244537909249       -0.00094904413396
F            0.00038041235730       -1.95004770795755       -1.13056265341055
F            0.00029279629296       -1.94915914224323        1.12842511946939
H           -2.78164402124964       -1.65989024691519       -0.00426018941937
H           -4.42848999446614        0.48256151777203       -0.00325865359038
H           -2.83126766455760        2.64363268430703        0.00001612032644
H           -0.00060689410044        2.90057101689020        0.00140203324910
H            2.78221055329446       -1.65880331368286       -0.00378948843152
H            4.42821629667925        0.48429285443598       -0.00307337463289
H            2.83014907275715        2.64473819205746       -0.00031729743745

          :  Hamiltonian                  GFN2-xTB          :
         :: total energy             -39.530635232731 Eh    ::
         :: gradient norm              0.000075515686 Eh/a0 ::
         :: HOMO-LUMO gap              1.790739035174 eV    ::
         :: SCC energy               -40.051305806961 Eh    ::
         :: -> dispersion             -0.021117096531 Eh    ::
         :: repulsion energy           0.520632183454 Eh    ::

    * Orbital Energies and Occupations

         #    Occupation            Energy/Eh            Energy/eV
      -------------------------------------------------------------
         1        2.0000           -0.7666396             -20.8613
       ...           ...                  ...                  ...
        23        2.0000           -0.4915236             -13.3750
        24        2.0000           -0.4822024             -13.1214
        25        2.0000           -0.4771548             -12.9840
        26        2.0000           -0.4754798             -12.9385
        27        2.0000           -0.4686644             -12.7530
        28        2.0000           -0.4596345             -12.5073
        29        2.0000           -0.4548586             -12.3773
        30        2.0000           -0.4459853             -12.1359
        31        2.0000           -0.4437266             -12.0744
        32        2.0000           -0.4336703             -11.8008
        33        2.0000           -0.4263877             -11.6026
        34        2.0000           -0.4261757             -11.5968
        35        2.0000           -0.3983602             -10.8399 (HOMO)
        36                         -0.3325518              -9.0492 (LUMO)
        37                         -0.2169142              -5.9025
        38                         -0.1937089              -5.2711
        39                         -0.1792370              -4.8773
        40                         -0.1358543              -3.6968
        41                          0.0412046               1.1212
        42                          0.0442621               1.2044
        43                          0.0825897               2.2474
        44                          0.0957813               2.6063
        45                          0.1149780               3.1287
        46                          0.1327649               3.6127
       ...                                ...                  ...
        63                          0.6889917              18.7484
      -------------------------------------------------------------
                  HL-Gap            0.0658084 Eh            1.7907 eV

     #   Z          covCN         q      C6AA      α(0)
     1   5 B        3.111     0.522    14.272     6.301
     2   7 N        2.748    -0.092    23.041     7.129
     3   6 C        3.076     0.044    26.927     8.508
     4   6 C        3.035    -0.051    29.233     8.868
     5   6 C        3.036    -0.043    29.021     8.836
     6   6 C        3.133     0.049    26.703     8.459
     7   6 C        2.900    -0.018    28.451     8.746
     8   6 C        3.133     0.049    26.703     8.459
     9   7 N        2.748    -0.092    23.041     7.129
    10   6 C        3.076     0.044    26.927     8.508
    11   6 C        3.035    -0.051    29.233     8.868
    12   6 C        3.036    -0.043    29.021     8.836
    13   9 F        0.722    -0.369    13.147     4.282
    14   9 F        0.722    -0.369    13.147     4.282
    15   1 H        0.926     0.072     2.058     2.244
    16   1 H        0.926     0.051     2.313     2.378
    17   1 H        0.926     0.050     2.316     2.380
    18   1 H        0.926     0.073     2.050     2.239
    19   1 H        0.926     0.072     2.058     2.244
    20   1 H        0.926     0.051     2.313     2.378
    21   1 H        0.926     0.050     2.316     2.380

Wiberg/Mayer (AO) data.
largest (>0.10) Wiberg bond orders for each atom

     #   Z sym  total        # sym  WBO       # sym  WBO       # sym  WBO
 ---------------------------------------------------------------------------
     1   5 B    3.388 --    13 F    0.874    14 F    0.874     2 N    0.794
                             9 N    0.794
     2   7 N    3.615 --     3 C    1.416     6 C    1.150     1 B    0.794
     3   6 C    3.930 --     2 N    1.416     4 C    1.329    15 H    0.966
     4   6 C    3.961 --     5 C    1.535     3 C    1.329    16 H    0.973
     5   6 C    3.954 --     4 C    1.535     6 C    1.248    17 H    0.972
     6   6 C    3.964 --     7 C    1.372     5 C    1.248     2 N    1.150
     7   6 C    3.986 --     6 C    1.372     8 C    1.372    18 H    0.962
     8   6 C    3.964 --     7 C    1.372    12 C    1.248     9 N    1.150
     9   7 N    3.615 --    10 C    1.416     8 C    1.150     1 B    0.794
    10   6 C    3.930 --     9 N    1.416    11 C    1.329    19 H    0.966
    11   6 C    3.961 --    12 C    1.535    10 C    1.329    20 H    0.973
    12   6 C    3.954 --    11 C    1.535     8 C    1.248    21 H    0.972
    13   9 F    0.973 --     1 B    0.874
    14   9 F    0.973 --     1 B    0.874
    15   1 H    0.994 --     3 C    0.966
    16   1 H    0.997 --     4 C    0.973
    17   1 H    0.997 --     5 C    0.972
    18   1 H    0.994 --     7 C    0.962
    19   1 H    0.994 --    10 C    0.966
    20   1 H    0.997 --    11 C    0.973
    21   1 H    0.997 --    12 C    0.972
 ---------------------------------------------------------------------------

molecular dipole:
                 x           y           z       tot (Debye)
 q only:       -0.000       1.887      -0.001
   full:       -0.000       1.976      -0.001       5.023

           -------------------------------------------------
          | TOTAL ENERGY              -39.530635232731 Eh   |
          | GRADIENT NORM               0.000075515686 Eh/α |
          | HOMO-LUMO GAP               1.790739035174 eV   |
           -------------------------------------------------

 * finished run on 2024/05/20 at 23:18:11.447
