   * xtb version 6.6.1 (8d0f1dd) compiled by 'conda@1efc2f54142f' on 2023-08-01
          program call               : xtb crest_best.xyz --gfn 2 --opt vtight --parallel 4

   ID    Z sym.   atoms
    1    5 B      1
    2    7 N      2, 9
    3    6 C      3-8, 10-12
    4    9 F      13, 14
    5    1 H      15-21

          :  Hamiltonian                  GFN2-xTB          :
 * total energy  :   -39.5227667 Eh     change       -0.6691891E-09 Eh
 * total energy  :   -39.5296337 Eh     change       -0.6866977E-02 Eh
 * total energy  :   -39.5305261 Eh     change       -0.8923777E-03 Eh
 * total energy  :   -39.5306033 Eh     change       -0.7726813E-04 Eh
 * total energy  :   -39.5306327 Eh     change       -0.2934990E-04 Eh
 * total energy  :   -39.5306347 Eh     change       -0.2011784E-05 Eh
 * total energy  :   -39.5306350 Eh     change       -0.2937229E-06 Eh
 * total energy  :   -39.5306350 Eh     change       -0.4386287E-07 Eh
   *** GEOMETRY OPTIMIZATION CONVERGED AFTER 8 ITERATIONS ***

 final structure:
================
21
 xtb: 6.6.1 (8d0f1dd)
B            0.00004836905839       -1.16297427984143        0.00138520281965
N            1.24625619058332       -0.24078685386993       -0.00141104439043
C            2.51744494152920       -0.61895047880193       -0.00356439451676
C            3.35659901517029        0.50485222305123       -0.00294182198306
C            2.54014699393848        1.61218697346961        0.00009756118165
C            1.20525484728416        1.13835878446284        0.00085325513625
C           -0.00013532360207        1.82103644797762        0.00222034639473
C           -1.20544276671126        1.13821003626099        0.00033456763799
N           -1.24627101694267       -0.24093993124706       -0.00233285492954
C           -2.51741203466291       -0.61926302816474       -0.00542461647900
C           -3.35670550771448        0.50443463775745       -0.00497981663123
C           -2.54039277266754        1.61187092676076       -0.00108937941669
F           -0.00033134802387       -1.94491983831262        1.13421099322548
F            0.00052117240778       -1.95410185203215       -1.12477091197476
H            2.78202203497454       -1.65908578898422       -0.00556878772366
H            4.42829732991310        0.48379415948461       -0.00453318920921
H            2.83050844138590        2.64444327866033        0.00131695892819
H           -0.00020085123401        2.90064292402841        0.00425583663625
H           -2.78185738615337       -1.65943027965922       -0.00797871018741
H           -4.42839958146947        0.48324259436169       -0.00726190251285
H           -2.83088355436351        2.64409046543776        0.00033449259441

          :  Hamiltonian                  GFN2-xTB          :
         :: total energy             -39.530635029021 Eh    ::
         :: gradient norm              0.000085926545 Eh/a0 ::
         :: HOMO-LUMO gap              1.790737892487 eV    ::
         :: SCC energy               -40.051306964788 Eh    ::
         :: -> dispersion             -0.021117095143 Eh    ::
         :: repulsion energy           0.520633543602 Eh    ::

    * Orbital Energies and Occupations

         #    Occupation            Energy/Eh            Energy/eV
      -------------------------------------------------------------
         1        2.0000           -0.7666428             -20.8614
       ...           ...                  ...                  ...
        23        2.0000           -0.4915256             -13.3751
        24        2.0000           -0.4822019             -13.1214
        25        2.0000           -0.4771548             -12.9840
        26        2.0000           -0.4754800             -12.9385
        27        2.0000           -0.4686625             -12.7530
        28        2.0000           -0.4596336             -12.5073
        29        2.0000           -0.4548615             -12.3774
        30        2.0000           -0.4459890             -12.1360
        31        2.0000           -0.4437282             -12.0745
        32        2.0000           -0.4336710             -11.8008
        33        2.0000           -0.4263879             -11.6026
        34        2.0000           -0.4261758             -11.5968
        35        2.0000           -0.3983583             -10.8399 (HOMO)
        36                         -0.3325499              -9.0491 (LUMO)
        37                         -0.2169140              -5.9025
        38                         -0.1937077              -5.2711
        39                         -0.1792361              -4.8773
        40                         -0.1358544              -3.6968
        41                          0.0412041               1.1212
        42                          0.0442602               1.2044
        43                          0.0825898               2.2474
        44                          0.0957807               2.6063
        45                          0.1149797               3.1288
        46                          0.1327661               3.6127
       ...                                ...                  ...
        63                          0.6889916              18.7484
      -------------------------------------------------------------
                  HL-Gap            0.0658084 Eh            1.7907 eV

     #   Z          covCN         q      C6AA      α(0)
     1   5 B        3.111     0.522    14.272     6.301
     2   7 N        2.748    -0.092    23.041     7.129
     3   6 C        3.076     0.044    26.927     8.508
     4   6 C        3.035    -0.051    29.233     8.868
     5   6 C        3.036    -0.043    29.021     8.836
     6   6 C        3.133     0.049    26.703     8.459
     7   6 C        2.900    -0.018    28.451     8.746
     8   6 C        3.133     0.049    26.703     8.459
     9   7 N        2.748    -0.092    23.041     7.129
    10   6 C        3.076     0.044    26.927     8.508
    11   6 C        3.035    -0.051    29.233     8.868
    12   6 C        3.036    -0.043    29.021     8.836
    13   9 F        0.722    -0.369    13.148     4.282
    14   9 F        0.722    -0.369    13.146     4.282
    15   1 H        0.926     0.072     2.058     2.244
    16   1 H        0.926     0.051     2.313     2.378
    17   1 H        0.926     0.050     2.316     2.380
    18   1 H        0.926     0.073     2.050     2.239
    19   1 H        0.926     0.072     2.058     2.244
    20   1 H        0.926     0.051     2.313     2.378
    21   1 H        0.926     0.050     2.316     2.380

Wiberg/Mayer (AO) data.
largest (>0.10) Wiberg bond orders for each atom

     #   Z sym  total        # sym  WBO       # sym  WBO       # sym  WBO
 ---------------------------------------------------------------------------
     1   5 B    3.388 --    14 F    0.874    13 F    0.874     9 N    0.794
                             2 N    0.794
     2   7 N    3.615 --     3 C    1.416     6 C    1.150     1 B    0.794
     3   6 C    3.930 --     2 N    1.416     4 C    1.329    15 H    0.966
     4   6 C    3.961 --     5 C    1.535     3 C    1.329    16 H    0.973
     5   6 C    3.954 --     4 C    1.535     6 C    1.248    17 H    0.972
     6   6 C    3.964 --     7 C    1.372     5 C    1.248     2 N    1.150
     7   6 C    3.986 --     6 C    1.372     8 C    1.372    18 H    0.962
     8   6 C    3.964 --     7 C    1.372    12 C    1.248     9 N    1.150
     9   7 N    3.615 --    10 C    1.416     8 C    1.150     1 B    0.794
    10   6 C    3.930 --     9 N    1.416    11 C    1.329    19 H    0.966
    11   6 C    3.961 --    12 C    1.535    10 C    1.329    20 H    0.973
    12   6 C    3.954 --    11 C    1.535     8 C    1.248    21 H    0.972
    13   9 F    0.973 --     1 B    0.874
    14   9 F    0.974 --     1 B    0.874
    15   1 H    0.994 --     3 C    0.966
    16   1 H    0.997 --     4 C    0.973
    17   1 H    0.997 --     5 C    0.972
    18   1 H    0.994 --     7 C    0.962
    19   1 H    0.994 --    10 C    0.966
    20   1 H    0.997 --    11 C    0.973
    21   1 H    0.997 --    12 C    0.972
 ---------------------------------------------------------------------------

molecular dipole:
                 x           y           z       tot (Debye)
 q only:       -0.000       1.886      -0.007
   full:       -0.000       1.976      -0.007       5.022

           -------------------------------------------------
          | TOTAL ENERGY              -39.530635029021 Eh   |
          | GRADIENT NORM               0.000085926545 Eh/α |
          | HOMO-LUMO GAP               1.790737892487 eV   |
           -------------------------------------------------

 * finished run on 2024/05/20 at 01:53:54.493
