   * xtb version 6.6.1 (8d0f1dd) compiled by 'conda@1efc2f54142f' on 2023-08-01
          program call               : xtb crest_best.xyz --gfn 2 --opt vtight --parallel 4

   ID    Z sym.   atoms
    1    5 B      1
    2    7 N      2, 9
    3    6 C      3-8, 10-12
    4    9 F      13, 14
    5    1 H      15-21

          :  Hamiltonian                  GFN2-xTB          :
 * total energy  :   -39.5227989 Eh     change       -0.4083702E-09 Eh
 * total energy  :   -39.5296390 Eh     change       -0.6840069E-02 Eh
 * total energy  :   -39.5305270 Eh     change       -0.8880370E-03 Eh
 * total energy  :   -39.5306040 Eh     change       -0.7699149E-04 Eh
 * total energy  :   -39.5306329 Eh     change       -0.2884291E-04 Eh
 * total energy  :   -39.5306348 Eh     change       -0.1970405E-05 Eh
 * total energy  :   -39.5306351 Eh     change       -0.2713721E-06 Eh
 * total energy  :   -39.5306351 Eh     change       -0.3050991E-07 Eh
   *** GEOMETRY OPTIMIZATION CONVERGED AFTER 8 ITERATIONS ***

 final structure:
================
21
 xtb: 6.6.1 (8d0f1dd)
B            0.00024132476764       -1.16313373080737        0.00071169801202
N           -1.24616742146356       -0.24123043617614       -0.00141005427832
C           -2.51727988566624       -0.61967335239375       -0.00358300150580
C           -3.35667329342178        0.50394676489045       -0.00275148728733
C           -2.54046183292744        1.61146296092497        0.00012621329160
C           -1.20546967111784        1.13793393103936        0.00101847440729
C           -0.00023303719335        1.82087499463651        0.00271151547501
C            1.20522501537624        1.13831388724572        0.00129156469833
N            1.24636048471134       -0.24083364247303       -0.00127364856041
C            2.51759654595322       -0.61887315415810       -0.00312472372649
C            3.35662909086767        0.50501327335825       -0.00191064352925
C            2.54006270070595        1.61227085536077        0.00082368895843
F            0.00040145317085       -1.95268642523818       -1.12658080696173
F            0.00032841478617       -1.94670476161466        1.13239365096019
H           -2.78161159138707       -1.65987014374517       -0.00562466572329
H           -4.42836846155125        0.48264739439409       -0.00418529206460
H           -2.83105119567350        2.64365537578165        0.00144323897695
H           -0.00040157617508        2.90048432186384        0.00450292556114
H            2.78225927612136       -1.65898502717648       -0.00522926545716
H            4.42833071394687        0.48405762492600       -0.00302106018183
H            2.83032306956979        2.64455554176127        0.00233535883527

          :  Hamiltonian                  GFN2-xTB          :
         :: total energy             -39.530635134793 Eh    ::
         :: gradient norm              0.000077399155 Eh/a0 ::
         :: HOMO-LUMO gap              1.790734123982 eV    ::
         :: SCC energy               -40.051304269996 Eh    ::
         :: -> dispersion             -0.021117080790 Eh    ::
         :: repulsion energy           0.520630742804 Eh    ::

    * Orbital Energies and Occupations

         #    Occupation            Energy/Eh            Energy/eV
      -------------------------------------------------------------
         1        2.0000           -0.7666398             -20.8613
       ...           ...                  ...                  ...
        23        2.0000           -0.4915234             -13.3750
        24        2.0000           -0.4822022             -13.1214
        25        2.0000           -0.4771558             -12.9841
        26        2.0000           -0.4754804             -12.9385
        27        2.0000           -0.4686633             -12.7530
        28        2.0000           -0.4596344             -12.5073
        29        2.0000           -0.4548585             -12.3773
        30        2.0000           -0.4459851             -12.1359
        31        2.0000           -0.4437265             -12.0744
        32        2.0000           -0.4336702             -11.8008
        33        2.0000           -0.4263877             -11.6026
        34        2.0000           -0.4261758             -11.5968
        35        2.0000           -0.3983599             -10.8399 (HOMO)
        36                         -0.3325516              -9.0492 (LUMO)
        37                         -0.2169159              -5.9026
        38                         -0.1937093              -5.2711
        39                         -0.1792365              -4.8773
        40                         -0.1358545              -3.6968
        41                          0.0411996               1.1211
        42                          0.0442583               1.2043
        43                          0.0825876               2.2473
        44                          0.0957828               2.6064
        45                          0.1149783               3.1287
        46                          0.1327640               3.6127
       ...                                ...                  ...
        63                          0.6889944              18.7485
      -------------------------------------------------------------
                  HL-Gap            0.0658083 Eh            1.7907 eV

     #   Z          covCN         q      C6AA      α(0)
     1   5 B        3.111     0.522    14.272     6.301
     2   7 N        2.748    -0.092    23.041     7.129
     3   6 C        3.076     0.044    26.927     8.508
     4   6 C        3.035    -0.051    29.232     8.868
     5   6 C        3.036    -0.043    29.021     8.836
     6   6 C        3.133     0.049    26.703     8.459
     7   6 C        2.900    -0.018    28.451     8.746
     8   6 C        3.133     0.049    26.703     8.459
     9   7 N        2.748    -0.092    23.041     7.129
    10   6 C        3.076     0.044    26.927     8.508
    11   6 C        3.035    -0.051    29.232     8.868
    12   6 C        3.036    -0.043    29.021     8.836
    13   9 F        0.722    -0.369    13.146     4.282
    14   9 F        0.722    -0.369    13.147     4.282
    15   1 H        0.926     0.072     2.058     2.244
    16   1 H        0.926     0.051     2.313     2.378
    17   1 H        0.926     0.050     2.316     2.380
    18   1 H        0.926     0.073     2.050     2.239
    19   1 H        0.926     0.072     2.058     2.244
    20   1 H        0.926     0.051     2.313     2.378
    21   1 H        0.926     0.050     2.316     2.380

Wiberg/Mayer (AO) data.
largest (>0.10) Wiberg bond orders for each atom

     #   Z sym  total        # sym  WBO       # sym  WBO       # sym  WBO
 ---------------------------------------------------------------------------
     1   5 B    3.388 --    13 F    0.874    14 F    0.874     2 N    0.794
                             9 N    0.794
     2   7 N    3.615 --     3 C    1.416     6 C    1.150     1 B    0.794
     3   6 C    3.930 --     2 N    1.416     4 C    1.329    15 H    0.966
     4   6 C    3.961 --     5 C    1.535     3 C    1.329    16 H    0.973
     5   6 C    3.954 --     4 C    1.535     6 C    1.248    17 H    0.972
     6   6 C    3.964 --     7 C    1.372     5 C    1.248     2 N    1.150
     7   6 C    3.986 --     6 C    1.372     8 C    1.372    18 H    0.962
     8   6 C    3.964 --     7 C    1.372    12 C    1.248     9 N    1.150
     9   7 N    3.615 --    10 C    1.416     8 C    1.150     1 B    0.794
    10   6 C    3.930 --     9 N    1.416    11 C    1.329    19 H    0.966
    11   6 C    3.961 --    12 C    1.535    10 C    1.329    20 H    0.973
    12   6 C    3.954 --    11 C    1.535     8 C    1.248    21 H    0.972
    13   9 F    0.974 --     1 B    0.874
    14   9 F    0.973 --     1 B    0.874
    15   1 H    0.994 --     3 C    0.966
    16   1 H    0.997 --     4 C    0.973
    17   1 H    0.997 --     5 C    0.972
    18   1 H    0.994 --     7 C    0.962
    19   1 H    0.994 --    10 C    0.966
    20   1 H    0.997 --    11 C    0.973
    21   1 H    0.997 --    12 C    0.972
 ---------------------------------------------------------------------------

molecular dipole:
                 x           y           z       tot (Debye)
 q only:       -0.000       1.887      -0.004
   full:       -0.000       1.976      -0.004       5.023

           -------------------------------------------------
          | TOTAL ENERGY              -39.530635134793 Eh   |
          | GRADIENT NORM               0.000077399155 Eh/α |
          | HOMO-LUMO GAP               1.790734123982 eV   |
           -------------------------------------------------

 * finished run on 2024/05/20 at 05:00:29.497
